ITEM: TIMESTEP
0
ITEM: NUMBER OF ATOMS
1728
ITEM: BOX BOUNDS pp pp pp
0.000000e+00 4.925600e+01
0.000000e+00 4.925600e+01
0.000000e+00 1.000000e+02
ITEM: ATOMS id type x y z fx fy fz
1 1 40.924999 21.863750 4.460312 -4.602208 -1.578480 -2.142189
2 1 35.757500 17.298437 10.769688 -4.139029 -10.820685 10.228559
3 1 35.192497 40.251564 6.496875 4.074691 4.748119 0.674724
4 1 44.794682 44.651871 38.185314 10.620373 11.189109 5.065285
5 1 13.030001 16.342501 13.576562 -5.457060 -1.666623 2.917511
6 1 48.886314 19.493752 21.411875 1.320695 -0.738672 1.046118
7 1 33.990627 36.894062 37.982189 14.696104 -12.252977 -3.553977
8 1 34.064060 29.439062 46.949684 2.084349 -0.302673 -3.076738
9 1 30.745939 17.389688 26.818125 -0.222716 -12.567423 1.306890
10 1 42.658752 49.155373 39.570629 10.665361 -2.924942 -2.758217
11 1 24.085312 25.709684 32.764690 1.145239 6.044927 4.707311
12 1 22.503126 44.526562 32.460625 0.136376 2.334919 0.138769
13 1 40.686562 10.167813 36.336254 -4.799647 0.716688 1.250862
14 1 27.759687 35.960629 34.831249 -4.660315 1.079541 -3.635026
15 1 15.389376 10.975937 44.065311 -6.235226 -4.775066 2.884115
16 1 20.182499 26.320311 47.596878 -0.996340 2.933624 -2.555433
17 1 13.980000 31.908749 36.262188 0.001429 4.145657 6.633084
18 1 11.193436 48.376873 32.370625 0.675758 6.140372 0.373097
19 1 10.087814 34.755314 30.267187 -2.479698 -1.760547 1.513503
20 1 21.835001 16.080936 11.176250 3.565723 2.077498 -0.239640
21 1 1.961876 9.160625 44.664684 0.998036 0.611704 -1.771066
22 0 33.645000 46.283436 50.811874 0.991625 -1.808225 -3.596311
23 1 46.840000 48.598747 42.345627 0.810732 2.909330 -1.287080
24 1 5.087188 31.762499 17.513750 -1.860317 6.588221 -0.568314
25 1 9.670000 20.681250 19.985624 0.279269 -1.272938 -7.767322
26 1 28.391562 22.378126 13.764374 -0.326874 1.274940 6.616307
27 1 40.061562 1.522188 19.162188 -3.536031 3.349272 0.688443
28 1 3.281876 6.426564 34.406563 3.495951 0.336333 3.264267
29 1 44.236874 14.395312 29.515625 -3.450518 3.984435 3.349082
30 1 26.085939 12.066566 35.050938 5.111269 -2.410837 -1.854818
31 1 18.322811 12.241875 0.277189 -1.255826 1.383958 2.698331
32 1 17.245001 18.626251 41.449062 -5.002151 -0.307009 1.763059
33 1 9.389686 17.550627 6.611563 -1.840835 2.295230 -0.650805
34 1 18.206251 13.281248 34.859062 5.913621 6.466617 -0.487834
35 1 36.021873 5.577500 18.020939 3.576184 5.396192 -4.933371
36 1 4.651875 38.257187 12.706874 -1.915538 -2.897243 2.009267
37 1 24.578438 36.241875 11.700313 -5.509666 9.663987 -19.842226
38 1 40.155312 35.016251 28.925940 -1.518604 2.386067 2.079490
39 1 31.836563 20.613123 8.100313 0.087802 5.893220 0.015888
40 1 0.940312 44.436565 45.028751 11.287064 -4.518408 1.569766
41 1 23.865936 26.501562 9.771250 -0.475301 -1.187629 -1.046694
42 1 2.082811 11.243749 23.023125 -2.936204 -1.653068 -0.995759
43 1 14.670000 17.341251 27.360624 -3.231874 -3.353589 3.098629
44 1 23.745314 1.278438 41.239689 0.743797 -9.010652 6.823201
45 1 34.704998 0.518125 40.760628 5.878008 4.695282 0.777274
46 1 9.617500 1.267188 37.493439 4.918455 6.339413 9.075150
47 0 17.211563 37.823124 48.299686 2.454059 -3.523980 7.480921
48 0 18.395622 0.648063 49.251251 10.959431 6.696279 -4.229872
49 1 30.382500 33.578129 7.088438 5.614905 2.796872 -4.457093
50 1 13.496874 12.395313 19.366875 -2.413386 5.057323 -4.208639
51 1 38.686249 12.166562 24.746252 2.665207 5.098752 1.246086
52 1 49.007252 42.457191 38.555313 2.923213 4.401685 -2.446002
53 1 25.937189 35.278122 46.374065 0.194576 -2.846129 2.040414
54 1 16.281250 46.350002 18.897186 4.744968 4.497391 1.821229
55 1 18.351875 34.394066 34.892185 3.354363 1.981235 -2.367592
56 0 7.955000 7.972500 51.538750 0.340907 1.063399 -0.759145
57 1 1.931875 15.725939 20.932812 4.880086 -5.536820 2.401922
58 1 27.836876 28.869375 2.591250 0.325424 -1.831132 -0.739014
59 1 11.758437 29.138124 1.695625 -2.479431 5.459639 0.496572
60 1 47.975311 8.684374 35.544064 -1.721967 3.636040 -1.041486
61 1 17.967499 45.006561 40.026566 8.336987 -3.250476 2.414328
62 1 12.015312 13.047812 27.193750 1.044610 -1.809095 2.749465
63 1 39.094063 16.896250 36.630314 -7.926298 -4.927933 1.291581
64 1 3.292811 46.444687 43.458439 -0.337142 -1.950954 -2.994774
65 1 48.906876 9.365937 24.404373 3.253543 1.341394 5.430247
66 1 42.534687 43.826252 28.839376 -2.404173 -1.251922 1.351700
67 1 36.090939 10.257812 1.192812 -2.722498 -0.925965 -0.693974
68 1 19.402187 20.912188 4.731251 0.275406 -1.666788 5.713749
69 1 19.939064 46.535004 10.906249 3.394305 5.064010 -1.263443
70 1 30.432503 12.937811 35.540939 1.851547 1.849096 2.981695
71 1 37.241249 42.932186 44.252811 -6.434031 -17.940630 -2.792080
72 1 21.805313 2.288124 39.093750 -11.996745 2.647832 -8.430457
73 1 5.873435 48.764374 3.958125 -2.432201 3.142644 1.814313
74 1 36.347187 11.175624 39.205936 -3.707523 12.060271 -4.755744
75 1 35.814064 34.423126 47.450314 -0.004267 -0.679787 -4.725816
76 1 27.628748 4.556874 12.289375 -2.403443 0.276326 -1.067343
77 1 34.820000 31.086563 15.903749 -1.178259 -8.182879 4.261690
78 1 8.803748 42.615936 23.605310 -3.107412 -0.129742 -5.897191
79 1 32.865311 30.708437 41.347187 3.551720 -0.607438 -0.304870
80 0 11.414372 39.983124 53.827187 -0.506289 0.346326 -2.901178
81 1 36.832500 35.741249 23.814373 6.094261 -2.418755 2.740387
82 1 15.518436 19.215939 31.320936 3.305600 4.591362 -5.860693
83 1 39.318752 8.050938 27.955624 -2.508384 -1.200406 0.972721
84 1 1.922188 47.952812 23.431561 8.127018 5.930560 0.633293
85 1 16.081249 29.267500 13.694689 -0.667542 5.456163 -6.745257
86 1 42.333439 31.886875 33.037189 -2.125918 -2.768008 -4.241576
87 1 13.572812 43.399376 17.387814 -0.946159 -5.514237 3.735180
88 1 2.407187 20.800625 0.273122 1.261094 2.317356 0.548521
89 1 47.435310 5.158124 19.820623 -4.571471 -5.435663 -1.483521
90 1 43.220936 23.991560 4.127187 -0.975684 -2.598004 -2.130022
91 1 44.728756 48.846249 7.903750 3.325772 1.530610 1.475445
92 1 27.493439 23.254063 19.835001 3.896786 -8.905762 -4.323438
93 1 26.382189 6.519374 17.060001 0.195479 4.102711 2.705848
94 1 17.325001 10.753124 20.629063 4.573003 2.003796 0.117375
95 1 10.648126 1.917502 9.842499 3.405912 -1.808287 -0.927345
96 1 37.534691 34.772499 41.881878 -4.662825 4.382631 -3.147322
97 1 39.520000 15.787189 25.435625 -2.884400 -6.124761 0.359846
98 1 32.237812 9.724063 38.471561 -4.197273 -1.793751 -6.534338
99 1 24.743124 4.567189 46.037502 -3.093048 1.406738 -0.515461
100 1 5.981877 15.550313 16.885626 4.086618 5.745048 -5.462143
101 1 16.627811 10.069062 36.448750 9.488582 2.746652 8.263858
102 1 46.649998 23.836876 26.428436 -4.452465 6.557023 2.702559
103 1 12.141562 24.085627 26.729372 7.183883 5.001146 3.140221
104 1 42.661877 18.300312 36.834999 0.823904 -2.541106 2.783403
105 0 31.464375 16.518749 92.884377 -5.987351 -1.746968 2.768361
106 1 7.341874 43.401875 31.690313 0.434482 7.941594 -6.259483
107 1 37.506248 3.095626 16.191563 -0.613125 1.473413 4.760808
108 1 7.519998 33.106873 46.057190 -0.498197 -2.921774 3.097714
109 1 46.479374 26.639688 47.902184 -0.964455 0.464341 -3.438027
110 1 22.601562 34.374374 23.010626 0.715078 1.322459 1.283586
111 1 31.656563 19.860939 1.545001 2.082448 -3.947686 -6.566967
112 1 41.872814 25.017500 47.968750 0.944335 0.407949 -1.043322
113 1 37.674686 6.951876 34.915314 -7.228039 1.408009 -6.626425
114 1 26.905937 16.970623 45.436253 -0.958871 -1.976556 -3.790890
115 0 23.405003 0.005873 50.636562 5.829119 -1.395141 2.720150
116 1 20.733126 45.465313 4.464687 2.884500 -1.011594 5.718653
117 1 19.514999 12.300000 27.258753 0.426996 1.321934 7.554379
118 1 23.364376 46.132500 17.839060 0.014249 0.338478 -7.618607
119 1 37.783123 37.818439 18.893438 -0.787322 2.234736 -0.100927
120 1 38.384686 39.498123 0.206253 0.115964 -2.376270 -0.599441
121 1 30.302500 27.509064 44.528435 6.705284 -0.596236 6.644958
122 1 35.628437 10.695312 35.870003 5.595168 1.389346 3.604558
123 1 4.991875 10.974689 40.095001 -3.944796 -2.551443 1.646133
124 1 6.813126 4.372500 43.128750 -2.034765 -0.873281 -7.645926
125 1 10.006563 35.539684 38.359062 -3.155539 -1.222373 0.143148
126 1 42.529999 48.417187 48.132809 0.896895 2.563928 -0.635716
127 1 23.285313 0.221563 13.751561 -4.761145 -7.750895 -1.985994
128 1 16.170313 38.770626 41.611561 -1.912563 5.395481 -4.879359
129 1 39.946873 41.886562 31.936874 -0.691893 -3.453445 -7.190410
130 1 22.320002 3.166251 12.889687 1.931132 0.351100 2.723160
131 1 28.824688 26.545000 11.499686 -1.976210 0.323695 -0.147528
132 1 23.373751 4.963748 2.607498 -1.176298 3.306175 4.694338
133 1 42.169376 9.762500 20.656563 -2.493638 -1.732596 1.977616
134 1 47.538437 10.750624 43.763126 -10.586476 -4.885476 -5.000822
135 1 21.212812 20.575310 11.221561 2.595529 -6.114735 -2.414845
136 1 26.960623 30.983749 38.333752 -3.853251 -1.510914 -3.229705
137 1 19.342188 2.476562 11.486876 -6.905578 -1.779323 -0.743250
138 1 34.214687 25.754686 32.366249 9.937897 0.249833 4.066165
139 1 16.501875 25.198437 39.822811 -1.303603 -1.746747 4.322573
140 1 16.170624 14.962187 29.864376 -2.815343 2.633527 2.100289
141 1 27.730625 0.946875 13.477187 -1.108975 -3.502730 1.887995
142 1 27.760311 38.770939 11.298437 -2.408700 -1.559129 -1.898438
143 1 3.411875 9.515313 13.893124 8.246303 1.909640 1.525930
144 1 36.950623 17.375626 7.923125 11.584901 0.745394 -10.926481
145 1 25.409998 47.614998 31.639063 3.030836 -3.662195 -3.383002
146 1 7.699063 27.043751 37.558750 -1.435818 -0.615544 -3.702204
147 1 10.846562 37.785313 21.983437 1.066411 -4.348493 2.470922
148 1 32.027187 21.972813 29.800312 3.394304 3.986060 9.915151
149 0 41.125938 1.580938 50.418751 -2.582989 -7.980165 0.629321
150 0 18.213751 33.880936 53.178749 0.764953 -7.715441 -0.713868
151 1 16.316248 45.993744 23.521250 1.207614 1.095028 -1.713323
152 1 37.093441 37.259377 4.132500 -0.703590 -1.703353 0.230117
153 1 20.124374 20.340624 42.673435 -2.507171 0.349084 -1.063524
154 1 22.341873 32.721561 17.173746 7.800501 8.385988 29.281719
155 1 6.681252 28.756559 21.369686 6.618090 0.116506 0.817289
156 1 40.816563 43.612499 15.173751 -0.804373 4.428577 5.699368
157 0 11.770937 12.688747 50.674061 3.561826 3.864977 6.460376
158 1 26.579691 47.234684 14.701874 2.207154 -0.561222 -5.849301
159 1 47.065002 25.947813 40.629059 7.370768 5.983426 0.324259
160 1 19.730000 28.541563 10.553750 1.103051 -0.292726 1.431116
161 1 27.676250 33.975937 10.292812 -5.232501 4.144421 -3.296713
162 1 36.860935 47.117813 18.845001 2.347124 0.229204 -5.476927
163 1 42.617809 46.132504 0.644374 -4.334543 2.660814 -4.492558
164 1 9.884999 31.276873 9.740623 3.043067 -2.348361 -1.761533
165 1 0.171814 28.764063 40.799999 -2.797452 -8.354367 -1.350659
166 1 35.827499 19.435627 31.798437 -7.662148 -0.224386 -2.942736
167 1 46.116249 40.359375 21.406874 3.922499 -7.091760 -3.091440
168 1 40.920940 5.155001 15.528750 -6.069475 -6.357552 -2.622521
169 1 15.686250 16.470623 11.577813 6.446704 -3.484609 -4.007357
170 1 1.728437 32.600002 32.358437 0.211229 4.988497 -2.039386
171 1 45.622814 39.299999 46.270626 3.937261 -4.315135 4.705190
172 1 32.332497 31.226873 13.830625 -5.017642 4.089595 -10.788146
173 1 9.575312 22.014688 11.217813 1.500997 11.368826 -5.054124
174 1 15.438436 18.409061 44.656563 2.237503 -1.395120 -2.544600
175 1 19.939997 3.847501 6.119374 -8.218894 -0.176482 -3.787023
176 1 0.184312 45.541561 12.221873 7.615683 10.623265 9.060511
177 1 37.515625 24.743122 9.197187 7.509084 9.038011 1.540537
178 1 18.418125 21.920313 45.473129 -0.290079 -1.438766 -2.959802
179 1 21.700003 4.165938 48.084999 -2.959731 -1.406695 4.360462
180 1 24.941875 24.225937 35.549999 5.058011 -4.589830 -11.205641
181 1 6.410625 23.584690 36.269688 0.995961 2.617647 0.003108
182 1 30.209061 9.653125 11.466563 8.727983 3.280199 -4.276756
183 1 43.928440 47.417500 43.261250 -4.273707 -5.825693 2.876719
184 1 45.122185 43.570621 27.045315 4.894458 4.845640 -0.574562
185 1 1.486563 46.824684 33.415936 2.619833 3.361423 -0.213789
186 1 41.875938 43.281876 34.392811 -0.635917 -3.497524 -4.779122
187 1 23.350311 37.763126 15.784063 -2.069976 4.595490 -2.245823
188 1 20.540314 41.873127 23.736874 -1.820484 5.111201 4.169000
189 1 38.422813 28.567503 11.724688 4.748292 7.768013 11.518463
190 1 15.026253 9.733748 17.878750 3.957655 -0.997783 2.273187
191 1 27.863436 10.299062 39.364063 1.396541 -4.035635 -0.818131
192 1 42.105000 17.539375 29.060623 1.182102 -4.282354 2.307749
193 1 42.754684 3.737812 44.287186 0.186769 -1.939578 3.921750
194 1 45.921249 37.625626 40.757187 -0.986268 -0.918744 -5.373585
195 1 3.911250 2.769686 34.710625 0.253034 -0.137705 -2.209858
196 1 4.970313 28.091249 40.293434 2.123217 4.022704 3.780840
197 1 38.396873 47.536251 14.692814 1.784135 -0.388815 2.337177
198 1 34.847504 15.806563 39.402813 -0.867725 0.562983 0.850913
199 1 44.305000 0.504936 16.810938 0.326219 1.406556 -1.278234
200 1 43.327187 29.694063 44.895626 -0.761124 -0.266445 -0.317739
201 0 35.877499 21.184689 97.166565 -3.194093 -5.895549 2.348402
202 1 19.050625 12.659684 5.314377 -1.966500 -3.855223 1.849239
203 0 29.765936 12.097500 93.650940 -8.515603 9.429927 -17.247522
204 1 40.247810 1.088439 14.536875 2.748684 -1.028954 2.466559
205 1 8.275939 30.649061 7.188437 -4.612028 -0.266313 -4.023695
206 1 25.960939 30.188751 0.057498 1.974925 2.549559 -6.515032
207 1 15.612501 32.207188 48.015621 -2.553105 0.128791 9.437078
208 1 42.654377 24.675001 23.331875 -3.000665 -8.566908 9.656290
209 1 11.292186 49.116871 44.170937 -1.301710 8.456986 1.998868
210 1 39.630001 32.167812 24.728125 -3.150379 -7.425744 -3.084119
211 1 34.543747 21.767813 35.503754 0.906408 -1.165629 -2.087777
212 1 1.475625 2.511250 15.704687 -6.561182 -1.414584 1.617659
213 1 21.774374 25.064062 39.022812 -8.635859 -0.648309 3.015461
214 1 44.005623 33.617500 30.024061 -1.933151 5.737151 0.180257
215 1 34.041565 27.491877 38.636253 -2.642813 -9.085535 -3.539775
216 1 2.289063 47.274063 17.955626 -2.600170 2.941574 -9.451294
217 1 23.732500 39.764378 27.640310 -0.531811 -1.567471 3.539323
218 1 23.534687 13.917499 37.531250 12.662768 5.502557 2.450598
219 1 15.961875 11.802500 4.201250 7.364662 -6.903438 4.352712
220 1 33.447811 3.665001 14.175626 0.692620 2.833616 2.914495
221 1 14.828434 45.277817 46.319374 2.387670 -3.036310 -1.464934
222 1 6.146563 14.138125 9.550938 1.778645 -1.033878 1.849163
223 0 1.433126 7.134063 48.609688 0.357151 -2.487474 -5.841671
224 1 34.939381 26.768438 11.517812 0.677664 4.675189 -6.679025
225 1 8.090939 1.688435 17.649061 -2.750565 -0.906346 -2.826577
226 1 40.215000 31.808750 37.024376 -1.059645 2.699850 -1.282210
227 1 36.828125 37.804375 46.349682 5.535616 -7.518142 -4.465945
228 0 2.040624 47.748440 54.129063 -6.963163 8.756937 5.885786
229 0 31.225939 8.305312 98.310005 0.472988 -2.264568 -2.884015
230 1 45.433125 0.468062 35.357185 7.002102 -2.185706 4.009327
231 1 31.537811 19.296871 24.258125 6.738921 4.112192 -4.171704
232 1 9.247186 42.384064 15.913437 6.343991 9.115049 4.609788
233 1 0.978437 25.471563 12.527813 3.529171 1.535835 -3.520756
234 0 27.794065 6.756250 50.439064 -0.470351 -5.050268 1.493115
235 1 33.775936 18.400314 99.137192 0.592440 0.835334 1.109995
236 1 32.501560 33.010937 1.419372 1.893717 -4.482880 -3.734648
237 1 13.212813 1.609372 24.194057 0.149543 3.317771 5.512831
238 1 22.400938 29.895624 27.942814 -5.220505 4.185508 5.747749
239 1 43.863438 27.340000 21.057497 0.373355 6.349662 -4.537545
240 1 9.761563 44.295002 9.436875 -3.599169 1.910920 -0.449691
241 1 29.286560 8.036561 37.202812 1.532122 4.435591 3.136515
242 1 26.346249 11.159688 9.589062 -6.594180 -0.079114 -3.111286
243 1 1.804062 29.220627 29.783438 3.612648 7.895607 0.747619
244 1 28.986876 20.842186 17.580313 -3.557446 2.496561 1.884854
245 1 29.536249 41.164375 5.020000 -2.001803 -2.072636 4.118428
246 1 35.718128 21.614376 0.450313 -3.473227 -1.094968 -0.810900
247 1 15.250626 5.404377 3.922813 -0.059331 0.759064 -0.546649
248 1 34.310310 2.331875 48.216251 1.982788 -0.906507 1.273748
249 1 34.099064 12.326250 15.283749 -1.579353 7.484452 6.398887
250 1 8.298125 41.854687 28.011873 1.711761 -0.343416 -3.210876
251 1 3.570624 39.724686 9.137500 2.719990 1.173734 -3.645771
252 1 38.661251 27.883125 8.486876 -4.382476 -10.384714 -6.341825
253 1 14.613435 12.004064 23.673124 -0.833193 4.050577 -2.113305
254 0 48.991875 30.412188 48.812809 5.346913 -5.650365 1.713014
255 1 43.466251 8.783124 40.333748 1.495564 -0.627980 -1.591323
256 1 9.926250 20.813124 40.529686 -0.779455 4.125481 1.293071
257 1 27.592188 27.669374 41.458439 -1.385058 2.226986 -5.600650
258 1 44.241249 0.961874 24.597185 0.487778 0.302283 -3.358297
259 1 41.950310 24.243750 7.870000 -4.367879 -3.557950 5.602737
260 1 14.444062 4.786875 24.701250 -5.730402 -4.972764 -3.727156
261 1 22.202187 25.510313 0.614689 -2.150881 -9.045351 -7.218259
262 1 2.740000 33.799377 7.499062 0.916868 -2.390602 2.570446
263 1 8.091875 6.647812 14.519062 8.877249 -1.522307 -5.686635
264 1 44.614372 13.354062 19.966564 -13.955153 2.343383 -4.823683
265 0 29.131561 15.574373 95.538750 -3.256704 -0.628057 -10.778664
266 1 2.078125 25.648438 18.321875 2.197364 -3.747071 -5.638104
267 1 13.138125 18.729374 42.232185 -2.787228 3.338571 -3.309243
268 1 15.257186 15.165314 21.573124 -4.921986 -0.998171 5.658175
269 1 47.350624 41.865940 33.552185 -6.916555 2.726253 -4.810049
270 1 43.303749 39.121876 30.660625 -2.901603 2.840517 -5.304356
271 1 38.808437 30.262812 42.634689 -3.393681 7.796573 14.720497
272 1 11.308749 34.814999 19.730314 3.002975 -0.359701 -0.668081
273 1 27.844063 11.234688 99.621559 1.480736 -2.555893 -7.676239
274 1 9.034686 30.482813 30.261875 9.756016 -9.770412 8.244020
275 1 37.157814 9.600311 7.771250 -11.145330 2.953145 -6.022285
276 1 30.865002 2.135313 40.033123 -5.524153 -5.115344 7.032740
277 1 13.505626 46.129063 41.105942 -3.712080 -1.665573 1.646914
278 1 13.244063 6.760937 8.186251 0.956394 -8.064069 1.837887
279 0 22.718437 34.583435 52.763126 4.413205 0.607554 1.699365
280 1 9.881253 22.419687 15.702812 -8.273088 5.456591 9.135426
281 1 8.151876 37.011246 18.524065 -3.486905 0.083038 -1.691744
282 1 6.895939 25.178127 25.993437 1.751648 -2.469782 1.189231
283 1 7.426565 44.917191 20.439690 -1.032074 9.148388 3.288980
284 1 12.623438 9.231874 12.606875 -8.625113 -6.293497 6.614854
285 1 26.917189 41.381874 47.651249 -15.910927 7.124460 6.533205
286 1 33.070312 4.679375 20.811562 0.930327 -9.895382 3.126858
287 1 24.836250 29.549997 24.689688 8.858176 2.081543 12.049064
288 1 7.274373 18.876875 36.166252 3.045006 -1.914792 -1.715142
289 1 40.721561 44.233440 46.457813 0.504109 0.299669 -1.085974
290 1 27.052500 0.646251 7.106250 10.371834 0.291580 1.964359
291 1 41.613441 33.046562 39.856876 4.259364 -6.557817 -4.408819
292 1 32.984688 43.417812 35.889065 6.594008 -3.384376 1.657855
293 1 40.057808 26.738125 35.758438 0.301504 -1.835576 1.395234
294 1 1.052499 12.894063 42.775314 9.624415 0.542832 6.312863
295 0 42.815311 21.982187 48.804379 -0.663814 -1.890872 -2.685968
296 1 31.101248 0.084313 8.654062 -6.136150 3.938893 0.255908
297 1 29.919998 48.300625 2.698751 1.022697 1.876729 -0.799202
298 1 7.041249 45.647194 27.299061 -0.530387 3.244873 0.596082
299 1 46.983124 4.745312 28.804375 -0.997817 0.544671 1.452884
300 1 28.539686 13.836249 1.311563 3.072997 0.473844 5.304451
301 1 17.042187 41.507183 24.380314 2.418324 -0.829273 -0.882019
302 1 41.584682 34.455315 18.510939 4.940385 -1.230682 -5.444286
303 1 48.388126 28.205000 15.266562 7.354208 3.553617 1.608241
304 1 10.371874 25.325312 0.861877 -1.317517 -4.260224 3.076630
305 1 13.993437 40.214687 13.985000 0.105952 -3.475885 -1.384654
306 1 9.698436 4.061874 24.636250 2.636809 1.640548 -1.074323
307 1 47.091248 21.839375 40.505001 -5.855410 -6.159142 -2.659314
308 1 32.404373 19.053125 34.698124 -4.462823 2.093541 4.435785
309 1 38.055000 0.307501 29.054373 4.799185 18.605446 2.986531
310 1 25.939375 2.814375 42.886871 3.765279 5.766214 5.968119
311 1 28.722813 45.230625 36.055626 -6.118914 1.906064 3.065997
312 1 30.173750 43.774372 41.975628 -6.375313 -7.201636 0.270679
313 1 36.010941 15.445937 15.654062 -1.111569 2.372100 -1.822294
314 1 45.223751 0.649623 13.713437 -8.536656 5.658966 0.328634
315 1 36.135002 27.377501 34.710934 -0.947605 0.773391 -3.619445
316 0 23.873436 45.911564 51.863125 -1.183888 4.130263 -1.101007
317 1 44.621250 14.016253 15.940625 0.200050 -5.906238 -3.287758
318 1 9.168749 11.702500 32.581871 -2.087024 -3.844928 0.952860
319 1 36.960938 13.210313 11.826248 1.633525 2.261365 0.701509
320 1 13.541250 47.720627 16.534063 -2.933850 2.611800 -0.170759
321 0 26.155312 9.883124 95.560944 1.991939 7.289716 1.448946
322 1 10.140626 43.672501 36.541878 8.305337 -7.191151 -0.248348
323 1 1.036249 20.011251 43.874062 -5.549759 -0.089421 -0.187751
324 1 6.885625 47.305000 16.138435 -3.060346 -5.295703 2.125696
325 1 3.782188 39.744061 33.764690 4.719887 4.950230 -0.073882
326 1 26.410936 7.027810 99.232506 12.184181 -7.655883 4.743622
327 1 2.972186 9.472499 27.740938 3.106682 -0.681267 0.776682
328 1 37.749691 11.501561 31.258749 1.395873 1.814517 0.321892
329 1 34.039375 7.162812 25.656248 1.676806 0.355951 1.844893
330 1 3.165002 19.813124 46.389374 4.556417 -0.717323 -1.023972
331 1 13.333122 2.884063 18.681250 11.805777 11.231064 -8.482349
332 1 45.533436 11.141249 36.733124 0.551620 -5.480718 -3.846211
333 1 12.832813 44.124374 32.275002 -4.996427 -0.231317 -1.633737
334 1 44.643749 29.441875 13.613749 -8.361445 -1.700868 1.879314
335 1 11.663438 48.037502 7.285939 2.997121 1.282797 4.231180
336 1 44.795315 12.719374 6.509065 6.237395 1.320155 -3.789661
337 0 21.819063 42.238750 51.781563 0.173895 -3.117700 -1.468344
338 1 7.662501 19.605312 1.248750 2.126570 -2.289573 -0.498408
339 1 38.745937 49.114376 10.234062 -3.230289 -0.062434 -2.619923
340 1 41.121876 10.720628 28.524376 1.244343 3.705793 0.398309
341 1 12.622810 12.082813 30.682188 0.348001 0.660588 1.299460
342 1 34.541878 39.746250 32.573750 -1.458814 6.740429 2.311991
343 1 42.007191 18.748123 45.527813 -1.658146 3.692575 -2.623128
344 1 29.060623 41.147186 22.319059 3.793929 -4.270448 0.834913
345 1 41.889687 12.943750 31.888441 4.463574 -0.523400 -15.836470
346 1 42.373749 0.210935 34.712814 -3.308417 0.754104 -2.479357
347 1 5.717188 28.631874 5.973751 2.772063 0.899126 3.270308
348 1 16.399378 24.817499 15.970000 7.026871 0.344976 -1.165138
349 1 46.402817 46.794689 36.140312 2.447269 -1.732987 -1.350706
350 1 21.333437 28.815622 45.092186 -4.548236 -4.551564 1.565048
351 1 18.079374 2.561872 35.925938 -2.272323 0.935404 -1.577572
352 1 32.479374 4.544375 45.218124 4.485733 0.993265 -1.829638
353 1 40.280315 39.817810 12.254374 -4.849695 -1.392619 1.419158
354 1 29.400312 23.502815 27.603437 1.176545 -1.543939 -4.775028
355 0 0.552501 10.268436 48.977188 1.445518 1.873122 4.550709
356 1 30.192814 29.502501 15.701877 7.470333 1.723320 5.913558
357 1 44.018127 32.839375 43.858753 1.288032 0.334751 5.591917
358 1 32.524059 32.652187 28.275938 2.841052 -14.369643 10.254741
359 1 11.539688 34.121563 45.514374 -4.777677 -0.712333 5.804175
360 1 15.810000 27.749687 20.775627 0.521738 -4.129948 5.041652
361 1 1.016875 44.690002 40.738129 -3.371542 -6.769120 -1.702241
362 1 28.898752 8.500313 15.977499 -3.690233 2.387618 3.421509
363 1 4.913125 38.883438 27.016251 -0.092498 5.743349 -4.010772
364 1 18.764687 29.899376 21.491873 3.730221 -0.674952 -1.933392
365 1 8.027811 36.003124 27.880936 3.268649 -2.888920 0.799402
366 1 0.947812 0.157498 42.519688 4.474669 4.193439 -2.019930
367 1 21.044689 5.412811 16.000000 0.197384 -0.802748 1.705357
368 1 2.876876 40.636559 44.419067 3.296868 -5.294002 -1.692231
369 1 3.009376 35.161251 23.525938 -3.323076 2.194781 -1.526175
370 1 27.553436 13.751249 11.284063 5.275270 3.566951 2.227403
371 1 35.204063 12.166877 9.073751 7.800747 -0.076979 -5.520021
372 1 16.113125 12.566875 8.336248 -1.186350 -1.248359 -8.252323
373 1 40.798439 18.075624 16.579689 -1.981019 5.792169 -4.228124
374 1 12.726562 3.370625 29.636248 0.713951 -0.159747 -2.162356
375 1 16.982500 36.773125 16.761250 -1.001047 1.044779 4.014922
376 1 0.267188 19.712500 25.693438 -3.548866 -1.616522 -3.151237
377 1 30.145624 36.796875 39.835941 3.336203 -0.245090 3.490852
378 1 13.364373 28.228437 34.550938 -13.921429 -0.012209 5.748405
379 1 48.875938 7.611565 14.755939 -7.211962 1.290704 0.196476
380 1 34.009064 21.294373 3.891877 -1.483257 9.518010 8.890993
381 1 15.214375 16.011875 3.254064 10.846784 7.636366 4.223966
382 1 3.869374 46.839066 2.179063 4.017314 0.089899 2.978002
383 1 6.069687 36.926250 30.772812 0.317738 -1.188980 1.447949
384 1 49.255936 6.647811 30.215311 -3.587970 -5.958877 -4.629434
385 1 16.732502 44.533127 36.220001 1.559102 0.139982 4.418053
386 1 47.509064 27.155937 44.501247 0.557105 4.110335 3.034960
387 1 48.247189 20.750313 9.149373 -3.544776 2.097284 -1.552768
388 1 24.344061 6.886875 21.516563 1.587375 -0.569701 -3.309310
389 1 25.288124 19.792812 36.501877 -2.403656 1.023207 -7.476155
390 1 17.263124 48.970940 4.577188 -4.087640 -2.602137 -2.283854
391 1 27.469063 1.540311 32.491566 0.594029 2.121248 0.339409
392 0 2.746561 46.729061 51.384060 2.697949 -2.750370 -9.458788
393 1 29.223747 40.079063 30.876564 5.762141 -3.388543 1.885375
394 1 24.358751 4.070939 23.437498 1.365530 -0.108458 7.089999
395 0 36.497501 3.288124 51.057186 -0.650974 -9.952771 2.940571
396 1 23.301250 38.176563 44.635315 2.165205 -3.028129 -3.736748
397 1 47.853432 47.522812 23.225937 -4.162699 -4.051449 -4.910412
398 1 21.772812 14.705938 41.903122 5.919473 1.879641 -0.171445
399 1 31.555624 30.171875 38.418125 0.964612 4.540229 2.663807
400 1 34.694687 14.862188 19.391874 0.589553 -1.762622 4.347238
401 1 35.090626 15.253124 30.418751 -4.061371 -3.878551 10.683144
402 1 0.729062 6.217811 10.925938 6.884282 -0.777768 0.446453
403 1 7.131565 44.801872 38.855003 -2.873204 1.219537 2.564018
404 1 15.128437 34.880936 31.109064 -9.827177 -4.131835 -2.274485
405 1 29.654690 29.987185 22.072187 3.547156 4.307037 -0.695077
406 1 4.505000 19.405626 29.325626 5.794050 0.147251 -1.509870
407 1 39.878441 0.142184 22.431875 -8.566021 4.781232 3.539647
408 1 47.030624 11.278439 29.875626 -0.929744 -2.350914 -2.443359
409 1 43.333752 39.146561 34.017811 -3.122860 -5.132389 8.360448
410 1 25.034061 26.076250 42.849689 -1.265438 2.291960 -1.478267
411 1 23.644688 27.475313 29.284376 -2.263268 -1.305711 -1.187268
412 1 2.944064 24.231564 5.337190 -3.941732 0.490989 -7.860414
413 1 41.095936 36.207813 25.793438 0.013023 10.751896 7.436881
414 1 40.092808 13.984686 17.630938 0.328211 2.028242 3.999306
415 1 18.619688 38.535625 44.384689 6.696637 0.291002 -2.263973
416 1 11.431564 40.458752 11.802188 -0.102303 4.408814 4.911930
417 1 30.189688 14.978125 24.615623 -9.086271 0.356361 -0.259786
418 1 18.875313 32.806564 9.446562 -1.237597 -8.397565 -1.448461
419 1 47.566246 1.354997 19.482813 0.826804 1.715813 3.835573
420 1 36.659065 3.954687 39.081871 -2.229002 3.516129 2.659071
421 1 30.432190 6.027812 28.912813 -4.862877 4.198468 0.141002
422 1 7.619687 11.399059 17.297190 -1.911930 -3.529133 -1.560247
423 1 46.875313 31.254374 5.367187 -1.745538 -1.936169 0.254082
424 1 12.672500 47.547188 37.919685 -6.551835 -0.206555 -0.013461
425 1 46.102501 16.740936 13.199061 1.419767 7.279101 -0.363939
426 1 28.664373 38.160000 7.094377 -0.442278 0.272940 -4.460865
427 1 12.932502 49.107876 47.404686 -7.134750 -20.673887 15.783857
428 1 21.476561 30.252502 14.941563 5.098819 -1.415652 -6.016612
429 1 4.478125 18.311874 40.054691 6.603182 -7.184420 -0.196108
430 1 4.435937 16.778437 46.482189 -0.211774 3.878409 5.223877
431 1 34.379063 35.363125 42.314373 -2.427552 -0.119209 5.442532
432 0 30.028751 24.823751 97.529373 -13.369348 -3.952429 5.540730
433 1 21.882812 25.239374 27.150000 0.230776 -0.488132 -1.244402
434 1 11.178126 19.791250 12.879061 11.338828 -13.825006 -5.949329
435 1 22.529062 13.039374 16.281250 -0.433664 -4.771437 -9.045126
436 0 20.965000 14.764688 97.227188 -4.206881 1.676635 -2.057262
437 1 22.035936 47.809372 31.204376 -7.188543 -8.134212 -2.121673
438 1 10.756874 9.236874 18.055313 -3.766638 -2.767898 0.599386
439 0 17.082813 26.549999 48.904060 -1.927523 -0.812454 -1.234261
440 1 35.098438 8.121564 30.900002 -0.350064 -4.024126 -0.383517
441 1 15.846875 27.651564 4.025311 -1.683747 0.956643 -5.028110
442 1 10.930313 36.013752 7.033436 -1.793683 -0.974180 -0.140853
443 1 35.712185 24.447189 26.103437 -0.581591 -0.360040 0.828303
444 0 19.892811 36.044685 49.463123 -4.980610 2.829252 3.924218
445 1 13.452187 1.450001 37.700314 -1.681265 -1.078793 -0.175956
446 1 18.323124 8.603127 45.072186 1.157039 -4.238189 -2.647941
447 1 10.364686 46.479374 16.655624 6.890806 1.462633 0.693818
448 1 27.700935 2.301250 27.654999 2.822480 -1.899802 1.133134
449 1 24.623121 17.288124 39.807503 0.013958 -7.109433 -1.650389
450 1 45.635933 41.912498 1.094375 2.495468 2.094228 -2.407681
451 1 34.031250 42.600002 40.558754 6.843777 0.238500 -0.060438
452 1 30.734999 9.939689 4.418125 -0.787612 -2.127097 -1.740246
453 1 27.590311 25.299063 31.528126 -3.646447 -1.126467 -3.418320
454 1 14.753438 24.339375 32.597187 -1.243038 2.883045 -1.156241
455 1 33.762501 30.774374 32.364063 1.017431 -3.014696 -0.415359
456 1 46.729061 15.168748 31.663748 -4.458340 2.836471 -0.767335
457 1 49.181873 43.374058 24.262810 -1.703789 -4.657835 -0.622577
458 1 14.425625 25.882500 36.519058 -1.379539 -1.762821 4.198396
459 1 14.299687 32.656250 25.955624 -2.472208 -0.395294 1.817240
460 1 48.459064 19.278749 14.314064 -7.677954 1.923457 -2.635977
461 1 41.899372 42.257500 8.590627 -8.294527 -6.733576 -4.382455
462 0 26.655312 10.988436 92.630623 0.976701 1.330303 -3.566942
463 1 6.565311 34.034374 37.439690 3.077404 5.742878 1.745342
464 1 24.945312 15.062812 3.062499 3.712754 7.285745 8.920273
465 1 21.490623 21.215624 34.639687 2.760983 0.445653 -6.326364
466 1 11.460624 32.528126 14.580000 5.708585 6.675799 4.294110
467 1 31.803749 8.125937 23.733435 1.205104 -1.798642 -0.403047